LAMMPS (7 Aug 2019)
OMP_NUM_THREADS environment is not set. Defaulting to 1 thread. (../comm.cpp:93)
  using 1 OpenMP thread(s) per MPI task
#Define system
units			metal
dimension		3
atom_style      	atomic
boundary        	p p p
neigh_modify		delay 0 every 1

#Define geometry
lattice 		sc 3.25
Lattice spacing in x,y,z = 3.25 3.25 3.25

region 			box block 0 8 0 8 0 8 units lattice
region 			box2 block 0.5 7.5 0.5 7.5 0.5 7.5 units lattice
create_box		2 box
Created orthogonal box = (0 0 0) to (26 26 26)
  1 by 1 by 1 MPI processor grid

create_atoms		1 region box
Created 512 atoms
  create_atoms CPU = 0 secs
create_atoms		2 region box2
Created 343 atoms
  create_atoms CPU = 0 secs

#Potential
pair_style		meam/c
pair_coeff 		* * ../_Potentials/library.meam Ni Ti ../_Potentials/NiTi.meam Ni Ti
mass 			1 58.6934 # Ni
mass            2 47.867 # Ti

# Termodinamica

velocity        	all create 500.0 97287
fix			5 all npt temp 1200.0 1200.0 10.0 iso 1.0 1.0 100000.0
fix 			4 all press/berendsen iso 1.0 1.0 1000.0

reset_timestep  	0

# Run

thermo_style		custom step temp press
thermo          	1000
thermo_modify 		lost ignore flush yes

shell mkdir dump
WARNING: Shell command 'mkdir' failed with error 'File exists' (../input.cpp:1292)
dump			1 all atom 1000 dump/*.dump
dump_modify     1 pad 5

timestep		0.01
run             	1
Neighbor list info ...
  update every 1 steps, delay 0 steps, check yes
  max neighbors/atom: 2000, page size: 100000
  master list distance cutoff = 7
  ghost atom cutoff = 7
  binsize = 3.5, bins = 8 8 8
  2 neighbor lists, perpetual/occasional/extra = 2 0 0
  (1) pair meam/c, perpetual
      attributes: full, newton on
      pair build: full/bin/atomonly
      stencil: full/bin/3d
      bin: standard
  (2) pair meam/c, perpetual, half/full from (1)
      attributes: half, newton on
      pair build: halffull/newton
      stencil: none
      bin: none
Per MPI rank memory allocation (min/avg/max) = 10.81 | 10.81 | 10.81 Mbytes
Step Temp Press 
       0          500          nan 
       1          nan          nan 
Loop time of 0.0219369 on 1 procs for 1 steps with 855 atoms

Performance: 39.386 ns/day, 0.609 hours/ns, 45.585 timesteps/s
71.2% CPU use with 1 MPI tasks x 1 OpenMP threads

MPI task timing breakdown:
Section |  min time  |  avg time  |  max time  |%varavg| %total
---------------------------------------------------------------
Pair    | 0.020949   | 0.020949   | 0.020949   |   0.0 | 95.50
Neigh   | 0          | 0          | 0          |   0.0 |  0.00
Comm    | 0          | 0          | 0          |   0.0 |  0.00
Output  | 0.00098801 | 0.00098801 | 0.00098801 |   0.0 |  4.50
Modify  | 0          | 0          | 0          |   0.0 |  0.00
Other   |            | 0          |            |       |  0.00

Nlocal:    855 ave 855 max 855 min
Histogram: 1 0 0 0 0 0 0 0 0 0
Nghost:    2673 ave 2673 max 2673 min
Histogram: 1 0 0 0 0 0 0 0 0 0
Neighs:    23651 ave 23651 max 23651 min
Histogram: 1 0 0 0 0 0 0 0 0 0
FullNghs:  47302 ave 47302 max 47302 min
Histogram: 1 0 0 0 0 0 0 0 0 0

Total # of neighbors = 47302
Ave neighs/atom = 55.324
Neighbor list builds = 0
Dangerous builds = 0


Total wall time: 0:00:00
