ITEM: TIMESTEP
0
ITEM: NUMBER OF ATOMS
2048
ITEM: BOX BOUNDS pp pp pp
0.0000000000000000e+00 2.8584000000000000e+01
0.0000000000000000e+00 2.8584000000000000e+01
0.0000000000000000e+00 2.8584000000000000e+01
ITEM: ATOMS id type xs ys zs
1 1 0 0 0
2 2 0.0625 0.0625 0
3 3 0.0625 0 0.0625
4 4 0 0.0625 0.0625
5 1 0.125 0 0
8 4 0.125 0.0625 0.0625
33 1 0 0.125 0
35 3 0.0625 0.125 0.0625
37 1 0.125 0.125 0
257 1 0 0 0.125
258 2 0.0625 0.0625 0.125
261 1 0.125 0 0.125
289 1 0 0.125 0.125
293 1 0.125 0.125 0.125
6 2 0.1875 0.0625 0
7 3 0.1875 0 0.0625
9 1 0.25 0 0
12 4 0.25 0.0625 0.0625
39 3 0.1875 0.125 0.0625
41 1 0.25 0.125 0
262 2 0.1875 0.0625 0.125
265 1 0.25 0 0.125
297 1 0.25 0.125 0.125
10 2 0.3125 0.0625 0
11 3 0.3125 0 0.0625
13 1 0.375 0 0
16 4 0.375 0.0625 0.0625
43 3 0.3125 0.125 0.0625
45 1 0.375 0.125 0
266 2 0.3125 0.0625 0.125
269 1 0.375 0 0.125
301 1 0.375 0.125 0.125
14 2 0.4375 0.0625 0
15 3 0.4375 0 0.0625
17 1 0.5 0 0
18 2 0.5625 0.0625 0
19 3 0.5625 0 0.0625
20 4 0.5 0.0625 0.0625
47 3 0.4375 0.125 0.0625
49 1 0.5 0.125 0
51 3 0.5625 0.125 0.0625
270 2 0.4375 0.0625 0.125
273 1 0.5 0 0.125
274 2 0.5625 0.0625 0.125
305 1 0.5 0.125 0.125
21 1 0.625 0 0
22 2 0.6875 0.0625 0
23 3 0.6875 0 0.0625
24 4 0.625 0.0625 0.0625
53 1 0.625 0.125 0
55 3 0.6875 0.125 0.0625
277 1 0.625 0 0.125
278 2 0.6875 0.0625 0.125
309 1 0.625 0.125 0.125
25 1 0.75 0 0
26 2 0.8125 0.0625 0
27 3 0.8125 0 0.0625
28 4 0.75 0.0625 0.0625
57 1 0.75 0.125 0
59 3 0.8125 0.125 0.0625
281 1 0.75 0 0.125
282 2 0.8125 0.0625 0.125
313 1 0.75 0.125 0.125
29 1 0.875 0 0
30 2 0.9375 0.0625 0
31 3 0.9375 0 0.0625
32 4 0.875 0.0625 0.0625
61 1 0.875 0.125 0
63 3 0.9375 0.125 0.0625
285 1 0.875 0 0.125
286 2 0.9375 0.0625 0.125
317 1 0.875 0.125 0.125
34 2 0.0625 0.1875 0
36 4 0 0.1875 0.0625
40 4 0.125 0.1875 0.0625
65 1 0 0.25 0
67 3 0.0625 0.25 0.0625
69 1 0.125 0.25 0
290 2 0.0625 0.1875 0.125
321 1 0 0.25 0.125
325 1 0.125 0.25 0.125
38 2 0.1875 0.1875 0
44 4 0.25 0.1875 0.0625
71 3 0.1875 0.25 0.0625
73 1 0.25 0.25 0
294 2 0.1875 0.1875 0.125
329 1 0.25 0.25 0.125
42 2 0.3125 0.1875 0
48 4 0.375 0.1875 0.0625
75 3 0.3125 0.25 0.0625
77 1 0.375 0.25 0
298 2 0.3125 0.1875 0.125
333 1 0.375 0.25 0.125
46 2 0.4375 0.1875 0
50 2 0.5625 0.1875 0
52 4 0.5 0.1875 0.0625
79 3 0.4375 0.25 0.0625
81 1 0.5 0.25 0
83 3 0.5625 0.25 0.0625
302 2 0.4375 0.1875 0.125
306 2 0.5625 0.1875 0.125
337 1 0.5 0.25 0.125
54 2 0.6875 0.1875 0
56 4 0.625 0.1875 0.0625
85 1 0.625 0.25 0
87 3 0.6875 0.25 0.0625
310 2 0.6875 0.1875 0.125
341 1 0.625 0.25 0.125
58 2 0.8125 0.1875 0
60 4 0.75 0.1875 0.0625
89 1 0.75 0.25 0
91 3 0.8125 0.25 0.0625
314 2 0.8125 0.1875 0.125
345 1 0.75 0.25 0.125
62 2 0.9375 0.1875 0
64 4 0.875 0.1875 0.0625
93 1 0.875 0.25 0
95 3 0.9375 0.25 0.0625
318 2 0.9375 0.1875 0.125
349 1 0.875 0.25 0.125
66 2 0.0625 0.3125 0
68 4 0 0.3125 0.0625
72 4 0.125 0.3125 0.0625
97 1 0 0.375 0
99 3 0.0625 0.375 0.0625
101 1 0.125 0.375 0
322 2 0.0625 0.3125 0.125
353 1 0 0.375 0.125
357 1 0.125 0.375 0.125
70 2 0.1875 0.3125 0
76 4 0.25 0.3125 0.0625
103 3 0.1875 0.375 0.0625
105 1 0.25 0.375 0
326 2 0.1875 0.3125 0.125
361 1 0.25 0.375 0.125
74 2 0.3125 0.3125 0
80 4 0.375 0.3125 0.0625
107 3 0.3125 0.375 0.0625
109 1 0.375 0.375 0
330 2 0.3125 0.3125 0.125
365 1 0.375 0.375 0.125
78 2 0.4375 0.3125 0
82 2 0.5625 0.3125 0
84 4 0.5 0.3125 0.0625
111 3 0.4375 0.375 0.0625
113 1 0.5 0.375 0
115 3 0.5625 0.375 0.0625
334 2 0.4375 0.3125 0.125
338 2 0.5625 0.3125 0.125
369 1 0.5 0.375 0.125
86 2 0.6875 0.3125 0
88 4 0.625 0.3125 0.0625
117 1 0.625 0.375 0
119 3 0.6875 0.375 0.0625
342 2 0.6875 0.3125 0.125
373 1 0.625 0.375 0.125
90 2 0.8125 0.3125 0
92 4 0.75 0.3125 0.0625
121 1 0.75 0.375 0
123 3 0.8125 0.375 0.0625
346 2 0.8125 0.3125 0.125
377 1 0.75 0.375 0.125
94 2 0.9375 0.3125 0
96 4 0.875 0.3125 0.0625
125 1 0.875 0.375 0
127 3 0.9375 0.375 0.0625
350 2 0.9375 0.3125 0.125
381 1 0.875 0.375 0.125
98 2 0.0625 0.4375 0
100 4 0 0.4375 0.0625
104 4 0.125 0.4375 0.0625
129 1 0 0.5 0
130 2 0.0625 0.5625 0
131 3 0.0625 0.5 0.0625
132 4 0 0.5625 0.0625
133 1 0.125 0.5 0
136 4 0.125 0.5625 0.0625
354 2 0.0625 0.4375 0.125
385 1 0 0.5 0.125
386 2 0.0625 0.5625 0.125
389 1 0.125 0.5 0.125
102 2 0.1875 0.4375 0
108 4 0.25 0.4375 0.0625
134 2 0.1875 0.5625 0
135 3 0.1875 0.5 0.0625
137 1 0.25 0.5 0
140 4 0.25 0.5625 0.0625
358 2 0.1875 0.4375 0.125
390 2 0.1875 0.5625 0.125
393 1 0.25 0.5 0.125
106 2 0.3125 0.4375 0
112 4 0.375 0.4375 0.0625
138 2 0.3125 0.5625 0
139 3 0.3125 0.5 0.0625
141 1 0.375 0.5 0
144 4 0.375 0.5625 0.0625
362 2 0.3125 0.4375 0.125
394 2 0.3125 0.5625 0.125
397 1 0.375 0.5 0.125
110 2 0.4375 0.4375 0
114 2 0.5625 0.4375 0
116 4 0.5 0.4375 0.0625
142 2 0.4375 0.5625 0
143 3 0.4375 0.5 0.0625
145 1 0.5 0.5 0
146 2 0.5625 0.5625 0
147 3 0.5625 0.5 0.0625
148 4 0.5 0.5625 0.0625
366 2 0.4375 0.4375 0.125
370 2 0.5625 0.4375 0.125
398 2 0.4375 0.5625 0.125
401 1 0.5 0.5 0.125
402 2 0.5625 0.5625 0.125
118 2 0.6875 0.4375 0
120 4 0.625 0.4375 0.0625
149 1 0.625 0.5 0
150 2 0.6875 0.5625 0
151 3 0.6875 0.5 0.0625
152 4 0.625 0.5625 0.0625
374 2 0.6875 0.4375 0.125
405 1 0.625 0.5 0.125
406 2 0.6875 0.5625 0.125
122 2 0.8125 0.4375 0
124 4 0.75 0.4375 0.0625
153 1 0.75 0.5 0
154 2 0.8125 0.5625 0
155 3 0.8125 0.5 0.0625
156 4 0.75 0.5625 0.0625
378 2 0.8125 0.4375 0.125
409 1 0.75 0.5 0.125
410 2 0.8125 0.5625 0.125
126 2 0.9375 0.4375 0
128 4 0.875 0.4375 0.0625
157 1 0.875 0.5 0
158 2 0.9375 0.5625 0
159 3 0.9375 0.5 0.0625
160 4 0.875 0.5625 0.0625
382 2 0.9375 0.4375 0.125
413 1 0.875 0.5 0.125
414 2 0.9375 0.5625 0.125
161 1 0 0.625 0
162 2 0.0625 0.6875 0
163 3 0.0625 0.625 0.0625
164 4 0 0.6875 0.0625
165 1 0.125 0.625 0
168 4 0.125 0.6875 0.0625
417 1 0 0.625 0.125
418 2 0.0625 0.6875 0.125
421 1 0.125 0.625 0.125
166 2 0.1875 0.6875 0
167 3 0.1875 0.625 0.0625
169 1 0.25 0.625 0
172 4 0.25 0.6875 0.0625
422 2 0.1875 0.6875 0.125
425 1 0.25 0.625 0.125
170 2 0.3125 0.6875 0
171 3 0.3125 0.625 0.0625
173 1 0.375 0.625 0
176 4 0.375 0.6875 0.0625
426 2 0.3125 0.6875 0.125
429 1 0.375 0.625 0.125
174 2 0.4375 0.6875 0
175 3 0.4375 0.625 0.0625
177 1 0.5 0.625 0
178 2 0.5625 0.6875 0
179 3 0.5625 0.625 0.0625
180 4 0.5 0.6875 0.0625
430 2 0.4375 0.6875 0.125
433 1 0.5 0.625 0.125
434 2 0.5625 0.6875 0.125
181 1 0.625 0.625 0
182 2 0.6875 0.6875 0
183 3 0.6875 0.625 0.0625
184 4 0.625 0.6875 0.0625
437 1 0.625 0.625 0.125
438 2 0.6875 0.6875 0.125
185 1 0.75 0.625 0
186 2 0.8125 0.6875 0
187 3 0.8125 0.625 0.0625
188 4 0.75 0.6875 0.0625
441 1 0.75 0.625 0.125
442 2 0.8125 0.6875 0.125
189 1 0.875 0.625 0
190 2 0.9375 0.6875 0
191 3 0.9375 0.625 0.0625
192 4 0.875 0.6875 0.0625
445 1 0.875 0.625 0.125
446 2 0.9375 0.6875 0.125
193 1 0 0.75 0
194 2 0.0625 0.8125 0
195 3 0.0625 0.75 0.0625
196 4 0 0.8125 0.0625
197 1 0.125 0.75 0
200 4 0.125 0.8125 0.0625
449 1 0 0.75 0.125
450 2 0.0625 0.8125 0.125
453 1 0.125 0.75 0.125
198 2 0.1875 0.8125 0
199 3 0.1875 0.75 0.0625
201 1 0.25 0.75 0
204 4 0.25 0.8125 0.0625
454 2 0.1875 0.8125 0.125
457 1 0.25 0.75 0.125
202 2 0.3125 0.8125 0
203 3 0.3125 0.75 0.0625
205 1 0.375 0.75 0
208 4 0.375 0.8125 0.0625
458 2 0.3125 0.8125 0.125
461 1 0.375 0.75 0.125
206 2 0.4375 0.8125 0
207 3 0.4375 0.75 0.0625
209 1 0.5 0.75 0
210 2 0.5625 0.8125 0
211 3 0.5625 0.75 0.0625
212 4 0.5 0.8125 0.0625
462 2 0.4375 0.8125 0.125
465 1 0.5 0.75 0.125
466 2 0.5625 0.8125 0.125
213 1 0.625 0.75 0
214 2 0.6875 0.8125 0
215 3 0.6875 0.75 0.0625
216 4 0.625 0.8125 0.0625
469 1 0.625 0.75 0.125
470 2 0.6875 0.8125 0.125
217 1 0.75 0.75 0
218 2 0.8125 0.8125 0
219 3 0.8125 0.75 0.0625
220 4 0.75 0.8125 0.0625
473 1 0.75 0.75 0.125
474 2 0.8125 0.8125 0.125
221 1 0.875 0.75 0
222 2 0.9375 0.8125 0
223 3 0.9375 0.75 0.0625
224 4 0.875 0.8125 0.0625
477 1 0.875 0.75 0.125
478 2 0.9375 0.8125 0.125
225 1 0 0.875 0
226 2 0.0625 0.9375 0
227 3 0.0625 0.875 0.0625
228 4 0 0.9375 0.0625
229 1 0.125 0.875 0
232 4 0.125 0.9375 0.0625
481 1 0 0.875 0.125
482 2 0.0625 0.9375 0.125
485 1 0.125 0.875 0.125
230 2 0.1875 0.9375 0
231 3 0.1875 0.875 0.0625
233 1 0.25 0.875 0
236 4 0.25 0.9375 0.0625
486 2 0.1875 0.9375 0.125
489 1 0.25 0.875 0.125
234 2 0.3125 0.9375 0
235 3 0.3125 0.875 0.0625
237 1 0.375 0.875 0
240 4 0.375 0.9375 0.0625
490 2 0.3125 0.9375 0.125
493 1 0.375 0.875 0.125
238 2 0.4375 0.9375 0
239 3 0.4375 0.875 0.0625
241 1 0.5 0.875 0
242 2 0.5625 0.9375 0
243 3 0.5625 0.875 0.0625
244 4 0.5 0.9375 0.0625
494 2 0.4375 0.9375 0.125
497 1 0.5 0.875 0.125
498 2 0.5625 0.9375 0.125
245 1 0.625 0.875 0
246 2 0.6875 0.9375 0
247 3 0.6875 0.875 0.0625
248 4 0.625 0.9375 0.0625
501 1 0.625 0.875 0.125
502 2 0.6875 0.9375 0.125
249 1 0.75 0.875 0
250 2 0.8125 0.9375 0
251 3 0.8125 0.875 0.0625
252 4 0.75 0.9375 0.0625
505 1 0.75 0.875 0.125
506 2 0.8125 0.9375 0.125
253 1 0.875 0.875 0
254 2 0.9375 0.9375 0
255 3 0.9375 0.875 0.0625
256 4 0.875 0.9375 0.0625
509 1 0.875 0.875 0.125
510 2 0.9375 0.9375 0.125
259 3 0.0625 0 0.1875
260 4 0 0.0625 0.1875
264 4 0.125 0.0625 0.1875
291 3 0.0625 0.125 0.1875
513 1 0 0 0.25
514 2 0.0625 0.0625 0.25
517 1 0.125 0 0.25
545 1 0 0.125 0.25
549 1 0.125 0.125 0.25
263 3 0.1875 0 0.1875
268 4 0.25 0.0625 0.1875
295 3 0.1875 0.125 0.1875
518 2 0.1875 0.0625 0.25
521 1 0.25 0 0.25
553 1 0.25 0.125 0.25
267 3 0.3125 0 0.1875
272 4 0.375 0.0625 0.1875
299 3 0.3125 0.125 0.1875
522 2 0.3125 0.0625 0.25
525 1 0.375 0 0.25
557 1 0.375 0.125 0.25
271 3 0.4375 0 0.1875
275 3 0.5625 0 0.1875
276 4 0.5 0.0625 0.1875
303 3 0.4375 0.125 0.1875
307 3 0.5625 0.125 0.1875
526 2 0.4375 0.0625 0.25
529 1 0.5 0 0.25
530 2 0.5625 0.0625 0.25
561 1 0.5 0.125 0.25
279 3 0.6875 0 0.1875
280 4 0.625 0.0625 0.1875
311 3 0.6875 0.125 0.1875
533 1 0.625 0 0.25
534 2 0.6875 0.0625 0.25
565 1 0.625 0.125 0.25
283 3 0.8125 0 0.1875
284 4 0.75 0.0625 0.1875
315 3 0.8125 0.125 0.1875
537 1 0.75 0 0.25
538 2 0.8125 0.0625 0.25
569 1 0.75 0.125 0.25
287 3 0.9375 0 0.1875
288 4 0.875 0.0625 0.1875
319 3 0.9375 0.125 0.1875
541 1 0.875 0 0.25
542 2 0.9375 0.0625 0.25
573 1 0.875 0.125 0.25
292 4 0 0.1875 0.1875
296 4 0.125 0.1875 0.1875
323 3 0.0625 0.25 0.1875
546 2 0.0625 0.1875 0.25
577 1 0 0.25 0.25
581 1 0.125 0.25 0.25
300 4 0.25 0.1875 0.1875
327 3 0.1875 0.25 0.1875
550 2 0.1875 0.1875 0.25
585 1 0.25 0.25 0.25
304 4 0.375 0.1875 0.1875
331 3 0.3125 0.25 0.1875
554 2 0.3125 0.1875 0.25
589 1 0.375 0.25 0.25
308 4 0.5 0.1875 0.1875
335 3 0.4375 0.25 0.1875
339 3 0.5625 0.25 0.1875
558 2 0.4375 0.1875 0.25
562 2 0.5625 0.1875 0.25
593 1 0.5 0.25 0.25
312 4 0.625 0.1875 0.1875
343 3 0.6875 0.25 0.1875
566 2 0.6875 0.1875 0.25
597 1 0.625 0.25 0.25
316 4 0.75 0.1875 0.1875
347 3 0.8125 0.25 0.1875
570 2 0.8125 0.1875 0.25
601 1 0.75 0.25 0.25
320 4 0.875 0.1875 0.1875
351 3 0.9375 0.25 0.1875
574 2 0.9375 0.1875 0.25
605 1 0.875 0.25 0.25
324 4 0 0.3125 0.1875
328 4 0.125 0.3125 0.1875
355 3 0.0625 0.375 0.1875
578 2 0.0625 0.3125 0.25
609 1 0 0.375 0.25
613 1 0.125 0.375 0.25
332 4 0.25 0.3125 0.1875
359 3 0.1875 0.375 0.1875
582 2 0.1875 0.3125 0.25
617 1 0.25 0.375 0.25
336 4 0.375 0.3125 0.1875
363 3 0.3125 0.375 0.1875
586 2 0.3125 0.3125 0.25
621 1 0.375 0.375 0.25
340 4 0.5 0.3125 0.1875
367 3 0.4375 0.375 0.1875
371 3 0.5625 0.375 0.1875
590 2 0.4375 0.3125 0.25
594 2 0.5625 0.3125 0.25
625 1 0.5 0.375 0.25
344 4 0.625 0.3125 0.1875
375 3 0.6875 0.375 0.1875
598 2 0.6875 0.3125 0.25
629 1 0.625 0.375 0.25
348 4 0.75 0.3125 0.1875
379 3 0.8125 0.375 0.1875
602 2 0.8125 0.3125 0.25
633 1 0.75 0.375 0.25
352 4 0.875 0.3125 0.1875
383 3 0.9375 0.375 0.1875
606 2 0.9375 0.3125 0.25
637 1 0.875 0.375 0.25
356 4 0 0.4375 0.1875
360 4 0.125 0.4375 0.1875
387 3 0.0625 0.5 0.1875
388 4 0 0.5625 0.1875
392 4 0.125 0.5625 0.1875
610 2 0.0625 0.4375 0.25
641 1 0 0.5 0.25
642 2 0.0625 0.5625 0.25
645 1 0.125 0.5 0.25
364 4 0.25 0.4375 0.1875
391 3 0.1875 0.5 0.1875
396 4 0.25 0.5625 0.1875
614 2 0.1875 0.4375 0.25
646 2 0.1875 0.5625 0.25
649 1 0.25 0.5 0.25
368 4 0.375 0.4375 0.1875
395 3 0.3125 0.5 0.1875
400 4 0.375 0.5625 0.1875
618 2 0.3125 0.4375 0.25
650 2 0.3125 0.5625 0.25
653 1 0.375 0.5 0.25
372 4 0.5 0.4375 0.1875
399 3 0.4375 0.5 0.1875
403 3 0.5625 0.5 0.1875
404 4 0.5 0.5625 0.1875
622 2 0.4375 0.4375 0.25
626 2 0.5625 0.4375 0.25
654 2 0.4375 0.5625 0.25
657 1 0.5 0.5 0.25
658 2 0.5625 0.5625 0.25
376 4 0.625 0.4375 0.1875
407 3 0.6875 0.5 0.1875
408 4 0.625 0.5625 0.1875
630 2 0.6875 0.4375 0.25
661 1 0.625 0.5 0.25
662 2 0.6875 0.5625 0.25
380 4 0.75 0.4375 0.1875
411 3 0.8125 0.5 0.1875
412 4 0.75 0.5625 0.1875
634 2 0.8125 0.4375 0.25
665 1 0.75 0.5 0.25
666 2 0.8125 0.5625 0.25
384 4 0.875 0.4375 0.1875
415 3 0.9375 0.5 0.1875
416 4 0.875 0.5625 0.1875
638 2 0.9375 0.4375 0.25
669 1 0.875 0.5 0.25
670 2 0.9375 0.5625 0.25
419 3 0.0625 0.625 0.1875
420 4 0 0.6875 0.1875
424 4 0.125 0.6875 0.1875
673 1 0 0.625 0.25
674 2 0.0625 0.6875 0.25
677 1 0.125 0.625 0.25
423 3 0.1875 0.625 0.1875
428 4 0.25 0.6875 0.1875
678 2 0.1875 0.6875 0.25
681 1 0.25 0.625 0.25
427 3 0.3125 0.625 0.1875
432 4 0.375 0.6875 0.1875
682 2 0.3125 0.6875 0.25
685 1 0.375 0.625 0.25
431 3 0.4375 0.625 0.1875
435 3 0.5625 0.625 0.1875
436 4 0.5 0.6875 0.1875
686 2 0.4375 0.6875 0.25
689 1 0.5 0.625 0.25
690 2 0.5625 0.6875 0.25
439 3 0.6875 0.625 0.1875
440 4 0.625 0.6875 0.1875
693 1 0.625 0.625 0.25
694 2 0.6875 0.6875 0.25
443 3 0.8125 0.625 0.1875
444 4 0.75 0.6875 0.1875
697 1 0.75 0.625 0.25
698 2 0.8125 0.6875 0.25
447 3 0.9375 0.625 0.1875
448 4 0.875 0.6875 0.1875
701 1 0.875 0.625 0.25
702 2 0.9375 0.6875 0.25
451 3 0.0625 0.75 0.1875
452 4 0 0.8125 0.1875
456 4 0.125 0.8125 0.1875
705 1 0 0.75 0.25
706 2 0.0625 0.8125 0.25
709 1 0.125 0.75 0.25
455 3 0.1875 0.75 0.1875
460 4 0.25 0.8125 0.1875
710 2 0.1875 0.8125 0.25
713 1 0.25 0.75 0.25
459 3 0.3125 0.75 0.1875
464 4 0.375 0.8125 0.1875
714 2 0.3125 0.8125 0.25
717 1 0.375 0.75 0.25
463 3 0.4375 0.75 0.1875
467 3 0.5625 0.75 0.1875
468 4 0.5 0.8125 0.1875
718 2 0.4375 0.8125 0.25
721 1 0.5 0.75 0.25
722 2 0.5625 0.8125 0.25
471 3 0.6875 0.75 0.1875
472 4 0.625 0.8125 0.1875
725 1 0.625 0.75 0.25
726 2 0.6875 0.8125 0.25
475 3 0.8125 0.75 0.1875
476 4 0.75 0.8125 0.1875
729 1 0.75 0.75 0.25
730 2 0.8125 0.8125 0.25
479 3 0.9375 0.75 0.1875
480 4 0.875 0.8125 0.1875
733 1 0.875 0.75 0.25
734 2 0.9375 0.8125 0.25
483 3 0.0625 0.875 0.1875
484 4 0 0.9375 0.1875
488 4 0.125 0.9375 0.1875
737 1 0 0.875 0.25
738 2 0.0625 0.9375 0.25
741 1 0.125 0.875 0.25
487 3 0.1875 0.875 0.1875
492 4 0.25 0.9375 0.1875
742 2 0.1875 0.9375 0.25
745 1 0.25 0.875 0.25
491 3 0.3125 0.875 0.1875
496 4 0.375 0.9375 0.1875
746 2 0.3125 0.9375 0.25
749 1 0.375 0.875 0.25
495 3 0.4375 0.875 0.1875
499 3 0.5625 0.875 0.1875
500 4 0.5 0.9375 0.1875
750 2 0.4375 0.9375 0.25
753 1 0.5 0.875 0.25
754 2 0.5625 0.9375 0.25
503 3 0.6875 0.875 0.1875
504 4 0.625 0.9375 0.1875
757 1 0.625 0.875 0.25
758 2 0.6875 0.9375 0.25
507 3 0.8125 0.875 0.1875
508 4 0.75 0.9375 0.1875
761 1 0.75 0.875 0.25
762 2 0.8125 0.9375 0.25
511 3 0.9375 0.875 0.1875
512 4 0.875 0.9375 0.1875
765 1 0.875 0.875 0.25
766 2 0.9375 0.9375 0.25
515 3 0.0625 0 0.3125
516 4 0 0.0625 0.3125
520 4 0.125 0.0625 0.3125
547 3 0.0625 0.125 0.3125
769 1 0 0 0.375
770 2 0.0625 0.0625 0.375
773 1 0.125 0 0.375
801 1 0 0.125 0.375
805 1 0.125 0.125 0.375
519 3 0.1875 0 0.3125
524 4 0.25 0.0625 0.3125
551 3 0.1875 0.125 0.3125
774 2 0.1875 0.0625 0.375
777 1 0.25 0 0.375
809 1 0.25 0.125 0.375
523 3 0.3125 0 0.3125
528 4 0.375 0.0625 0.3125
555 3 0.3125 0.125 0.3125
778 2 0.3125 0.0625 0.375
781 1 0.375 0 0.375
813 1 0.375 0.125 0.375
527 3 0.4375 0 0.3125
531 3 0.5625 0 0.3125
532 4 0.5 0.0625 0.3125
559 3 0.4375 0.125 0.3125
563 3 0.5625 0.125 0.3125
782 2 0.4375 0.0625 0.375
785 1 0.5 0 0.375
786 2 0.5625 0.0625 0.375
817 1 0.5 0.125 0.375
535 3 0.6875 0 0.3125
536 4 0.625 0.0625 0.3125
567 3 0.6875 0.125 0.3125
789 1 0.625 0 0.375
790 2 0.6875 0.0625 0.375
821 1 0.625 0.125 0.375
539 3 0.8125 0 0.3125
540 4 0.75 0.0625 0.3125
571 3 0.8125 0.125 0.3125
793 1 0.75 0 0.375
794 2 0.8125 0.0625 0.375
825 1 0.75 0.125 0.375
543 3 0.9375 0 0.3125
544 4 0.875 0.0625 0.3125
575 3 0.9375 0.125 0.3125
797 1 0.875 0 0.375
798 2 0.9375 0.0625 0.375
829 1 0.875 0.125 0.375
548 4 0 0.1875 0.3125
552 4 0.125 0.1875 0.3125
579 3 0.0625 0.25 0.3125
802 2 0.0625 0.1875 0.375
833 1 0 0.25 0.375
837 1 0.125 0.25 0.375
556 4 0.25 0.1875 0.3125
583 3 0.1875 0.25 0.3125
806 2 0.1875 0.1875 0.375
841 1 0.25 0.25 0.375
560 4 0.375 0.1875 0.3125
587 3 0.3125 0.25 0.3125
810 2 0.3125 0.1875 0.375
845 1 0.375 0.25 0.375
564 4 0.5 0.1875 0.3125
591 3 0.4375 0.25 0.3125
595 3 0.5625 0.25 0.3125
814 2 0.4375 0.1875 0.375
818 2 0.5625 0.1875 0.375
849 1 0.5 0.25 0.375
568 4 0.625 0.1875 0.3125
599 3 0.6875 0.25 0.3125
822 2 0.6875 0.1875 0.375
853 1 0.625 0.25 0.375
572 4 0.75 0.1875 0.3125
603 3 0.8125 0.25 0.3125
826 2 0.8125 0.1875 0.375
857 1 0.75 0.25 0.375
576 4 0.875 0.1875 0.3125
607 3 0.9375 0.25 0.3125
830 2 0.9375 0.1875 0.375
861 1 0.875 0.25 0.375
580 4 0 0.3125 0.3125
584 4 0.125 0.3125 0.3125
611 3 0.0625 0.375 0.3125
834 2 0.0625 0.3125 0.375
865 1 0 0.375 0.375
869 1 0.125 0.375 0.375
588 4 0.25 0.3125 0.3125
615 3 0.1875 0.375 0.3125
838 2 0.1875 0.3125 0.375
873 1 0.25 0.375 0.375
592 4 0.375 0.3125 0.3125
619 3 0.3125 0.375 0.3125
842 2 0.3125 0.3125 0.375
877 1 0.375 0.375 0.375
596 4 0.5 0.3125 0.3125
623 3 0.4375 0.375 0.3125
627 3 0.5625 0.375 0.3125
846 2 0.4375 0.3125 0.375
850 2 0.5625 0.3125 0.375
881 1 0.5 0.375 0.375
600 4 0.625 0.3125 0.3125
631 3 0.6875 0.375 0.3125
854 2 0.6875 0.3125 0.375
885 1 0.625 0.375 0.375
604 4 0.75 0.3125 0.3125
635 3 0.8125 0.375 0.3125
858 2 0.8125 0.3125 0.375
889 1 0.75 0.375 0.375
608 4 0.875 0.3125 0.3125
639 3 0.9375 0.375 0.3125
862 2 0.9375 0.3125 0.375
893 1 0.875 0.375 0.375
612 4 0 0.4375 0.3125
616 4 0.125 0.4375 0.3125
643 3 0.0625 0.5 0.3125
644 4 0 0.5625 0.3125
648 4 0.125 0.5625 0.3125
866 2 0.0625 0.4375 0.375
897 1 0 0.5 0.375
898 2 0.0625 0.5625 0.375
901 1 0.125 0.5 0.375
620 4 0.25 0.4375 0.3125
647 3 0.1875 0.5 0.3125
652 4 0.25 0.5625 0.3125
870 2 0.1875 0.4375 0.375
902 2 0.1875 0.5625 0.375
905 1 0.25 0.5 0.375
624 4 0.375 0.4375 0.3125
651 3 0.3125 0.5 0.3125
656 4 0.375 0.5625 0.3125
874 2 0.3125 0.4375 0.375
906 2 0.3125 0.5625 0.375
909 1 0.375 0.5 0.375
628 4 0.5 0.4375 0.3125
655 3 0.4375 0.5 0.3125
659 3 0.5625 0.5 0.3125
660 4 0.5 0.5625 0.3125
878 2 0.4375 0.4375 0.375
882 2 0.5625 0.4375 0.375
910 2 0.4375 0.5625 0.375
913 1 0.5 0.5 0.375
914 2 0.5625 0.5625 0.375
632 4 0.625 0.4375 0.3125
663 3 0.6875 0.5 0.3125
664 4 0.625 0.5625 0.3125
886 2 0.6875 0.4375 0.375
917 1 0.625 0.5 0.375
918 2 0.6875 0.5625 0.375
636 4 0.75 0.4375 0.3125
667 3 0.8125 0.5 0.3125
668 4 0.75 0.5625 0.3125
890 2 0.8125 0.4375 0.375
921 1 0.75 0.5 0.375
922 2 0.8125 0.5625 0.375
640 4 0.875 0.4375 0.3125
671 3 0.9375 0.5 0.3125
672 4 0.875 0.5625 0.3125
894 2 0.9375 0.4375 0.375
925 1 0.875 0.5 0.375
926 2 0.9375 0.5625 0.375
675 3 0.0625 0.625 0.3125
676 4 0 0.6875 0.3125
680 4 0.125 0.6875 0.3125
929 1 0 0.625 0.375
930 2 0.0625 0.6875 0.375
933 1 0.125 0.625 0.375
679 3 0.1875 0.625 0.3125
684 4 0.25 0.6875 0.3125
934 2 0.1875 0.6875 0.375
937 1 0.25 0.625 0.375
683 3 0.3125 0.625 0.3125
688 4 0.375 0.6875 0.3125
938 2 0.3125 0.6875 0.375
941 1 0.375 0.625 0.375
687 3 0.4375 0.625 0.3125
691 3 0.5625 0.625 0.3125
692 4 0.5 0.6875 0.3125
942 2 0.4375 0.6875 0.375
945 1 0.5 0.625 0.375
946 2 0.5625 0.6875 0.375
695 3 0.6875 0.625 0.3125
696 4 0.625 0.6875 0.3125
949 1 0.625 0.625 0.375
950 2 0.6875 0.6875 0.375
699 3 0.8125 0.625 0.3125
700 4 0.75 0.6875 0.3125
953 1 0.75 0.625 0.375
954 2 0.8125 0.6875 0.375
703 3 0.9375 0.625 0.3125
704 4 0.875 0.6875 0.3125
957 1 0.875 0.625 0.375
958 2 0.9375 0.6875 0.375
707 3 0.0625 0.75 0.3125
708 4 0 0.8125 0.3125
712 4 0.125 0.8125 0.3125
961 1 0 0.75 0.375
962 2 0.0625 0.8125 0.375
965 1 0.125 0.75 0.375
711 3 0.1875 0.75 0.3125
716 4 0.25 0.8125 0.3125
966 2 0.1875 0.8125 0.375
969 1 0.25 0.75 0.375
715 3 0.3125 0.75 0.3125
720 4 0.375 0.8125 0.3125
970 2 0.3125 0.8125 0.375
973 1 0.375 0.75 0.375
719 3 0.4375 0.75 0.3125
723 3 0.5625 0.75 0.3125
724 4 0.5 0.8125 0.3125
974 2 0.4375 0.8125 0.375
977 1 0.5 0.75 0.375
978 2 0.5625 0.8125 0.375
727 3 0.6875 0.75 0.3125
728 4 0.625 0.8125 0.3125
981 1 0.625 0.75 0.375
982 2 0.6875 0.8125 0.375
731 3 0.8125 0.75 0.3125
732 4 0.75 0.8125 0.3125
985 1 0.75 0.75 0.375
986 2 0.8125 0.8125 0.375
735 3 0.9375 0.75 0.3125
736 4 0.875 0.8125 0.3125
989 1 0.875 0.75 0.375
990 2 0.9375 0.8125 0.375
739 3 0.0625 0.875 0.3125
740 4 0 0.9375 0.3125
744 4 0.125 0.9375 0.3125
993 1 0 0.875 0.375
994 2 0.0625 0.9375 0.375
997 1 0.125 0.875 0.375
743 3 0.1875 0.875 0.3125
748 4 0.25 0.9375 0.3125
998 2 0.1875 0.9375 0.375
1001 1 0.25 0.875 0.375
747 3 0.3125 0.875 0.3125
752 4 0.375 0.9375 0.3125
1002 2 0.3125 0.9375 0.375
1005 1 0.375 0.875 0.375
751 3 0.4375 0.875 0.3125
755 3 0.5625 0.875 0.3125
756 4 0.5 0.9375 0.3125
1006 2 0.4375 0.9375 0.375
1009 1 0.5 0.875 0.375
1010 2 0.5625 0.9375 0.375
759 3 0.6875 0.875 0.3125
760 4 0.625 0.9375 0.3125
1013 1 0.625 0.875 0.375
1014 2 0.6875 0.9375 0.375
763 3 0.8125 0.875 0.3125
764 4 0.75 0.9375 0.3125
1017 1 0.75 0.875 0.375
1018 2 0.8125 0.9375 0.375
767 3 0.9375 0.875 0.3125
768 4 0.875 0.9375 0.3125
1021 1 0.875 0.875 0.375
1022 2 0.9375 0.9375 0.375
771 3 0.0625 0 0.4375
772 4 0 0.0625 0.4375
776 4 0.125 0.0625 0.4375
803 3 0.0625 0.125 0.4375
1025 1 0 0 0.5
1026 2 0.0625 0.0625 0.5
1027 3 0.0625 0 0.5625
1028 4 0 0.0625 0.5625
1029 1 0.125 0 0.5
1032 4 0.125 0.0625 0.5625
1057 1 0 0.125 0.5
1059 3 0.0625 0.125 0.5625
1061 1 0.125 0.125 0.5
775 3 0.1875 0 0.4375
780 4 0.25 0.0625 0.4375
807 3 0.1875 0.125 0.4375
1030 2 0.1875 0.0625 0.5
1031 3 0.1875 0 0.5625
1033 1 0.25 0 0.5
1036 4 0.25 0.0625 0.5625
1063 3 0.1875 0.125 0.5625
1065 1 0.25 0.125 0.5
779 3 0.3125 0 0.4375
784 4 0.375 0.0625 0.4375
811 3 0.3125 0.125 0.4375
1034 2 0.3125 0.0625 0.5
1035 3 0.3125 0 0.5625
1037 1 0.375 0 0.5
1040 4 0.375 0.0625 0.5625
1067 3 0.3125 0.125 0.5625
1069 1 0.375 0.125 0.5
783 3 0.4375 0 0.4375
787 3 0.5625 0 0.4375
788 4 0.5 0.0625 0.4375
815 3 0.4375 0.125 0.4375
819 3 0.5625 0.125 0.4375
1038 2 0.4375 0.0625 0.5
1039 3 0.4375 0 0.5625
1041 1 0.5 0 0.5
1042 2 0.5625 0.0625 0.5
1043 3 0.5625 0 0.5625
1044 4 0.5 0.0625 0.5625
1071 3 0.4375 0.125 0.5625
1073 1 0.5 0.125 0.5
1075 3 0.5625 0.125 0.5625
791 3 0.6875 0 0.4375
792 4 0.625 0.0625 0.4375
823 3 0.6875 0.125 0.4375
1045 1 0.625 0 0.5
1046 2 0.6875 0.0625 0.5
1047 3 0.6875 0 0.5625
1048 4 0.625 0.0625 0.5625
1077 1 0.625 0.125 0.5
1079 3 0.6875 0.125 0.5625
795 3 0.8125 0 0.4375
796 4 0.75 0.0625 0.4375
827 3 0.8125 0.125 0.4375
1049 1 0.75 0 0.5
1050 2 0.8125 0.0625 0.5
1051 3 0.8125 0 0.5625
1052 4 0.75 0.0625 0.5625
1081 1 0.75 0.125 0.5
1083 3 0.8125 0.125 0.5625
799 3 0.9375 0 0.4375
800 4 0.875 0.0625 0.4375
831 3 0.9375 0.125 0.4375
1053 1 0.875 0 0.5
1054 2 0.9375 0.0625 0.5
1055 3 0.9375 0 0.5625
1056 4 0.875 0.0625 0.5625
1085 1 0.875 0.125 0.5
1087 3 0.9375 0.125 0.5625
804 4 0 0.1875 0.4375
808 4 0.125 0.1875 0.4375
835 3 0.0625 0.25 0.4375
1058 2 0.0625 0.1875 0.5
1060 4 0 0.1875 0.5625
1064 4 0.125 0.1875 0.5625
1089 1 0 0.25 0.5
1091 3 0.0625 0.25 0.5625
1093 1 0.125 0.25 0.5
812 4 0.25 0.1875 0.4375
839 3 0.1875 0.25 0.4375
1062 2 0.1875 0.1875 0.5
1068 4 0.25 0.1875 0.5625
1095 3 0.1875 0.25 0.5625
1097 1 0.25 0.25 0.5
816 4 0.375 0.1875 0.4375
843 3 0.3125 0.25 0.4375
1066 2 0.3125 0.1875 0.5
1072 4 0.375 0.1875 0.5625
1099 3 0.3125 0.25 0.5625
1101 1 0.375 0.25 0.5
820 4 0.5 0.1875 0.4375
847 3 0.4375 0.25 0.4375
851 3 0.5625 0.25 0.4375
1070 2 0.4375 0.1875 0.5
1074 2 0.5625 0.1875 0.5
1076 4 0.5 0.1875 0.5625
1103 3 0.4375 0.25 0.5625
1105 1 0.5 0.25 0.5
1107 3 0.5625 0.25 0.5625
824 4 0.625 0.1875 0.4375
855 3 0.6875 0.25 0.4375
1078 2 0.6875 0.1875 0.5
1080 4 0.625 0.1875 0.5625
1109 1 0.625 0.25 0.5
1111 3 0.6875 0.25 0.5625
828 4 0.75 0.1875 0.4375
859 3 0.8125 0.25 0.4375
1082 2 0.8125 0.1875 0.5
1084 4 0.75 0.1875 0.5625
1113 1 0.75 0.25 0.5
1115 3 0.8125 0.25 0.5625
832 4 0.875 0.1875 0.4375
863 3 0.9375 0.25 0.4375
1086 2 0.9375 0.1875 0.5
1088 4 0.875 0.1875 0.5625
1117 1 0.875 0.25 0.5
1119 3 0.9375 0.25 0.5625
836 4 0 0.3125 0.4375
840 4 0.125 0.3125 0.4375
867 3 0.0625 0.375 0.4375
1090 2 0.0625 0.3125 0.5
1092 4 0 0.3125 0.5625
1096 4 0.125 0.3125 0.5625
1121 1 0 0.375 0.5
1123 3 0.0625 0.375 0.5625
1125 1 0.125 0.375 0.5
844 4 0.25 0.3125 0.4375
871 3 0.1875 0.375 0.4375
1094 2 0.1875 0.3125 0.5
1100 4 0.25 0.3125 0.5625
1127 3 0.1875 0.375 0.5625
1129 1 0.25 0.375 0.5
848 4 0.375 0.3125 0.4375
875 3 0.3125 0.375 0.4375
1098 2 0.3125 0.3125 0.5
1104 4 0.375 0.3125 0.5625
1131 3 0.3125 0.375 0.5625
1133 1 0.375 0.375 0.5
852 4 0.5 0.3125 0.4375
879 3 0.4375 0.375 0.4375
883 3 0.5625 0.375 0.4375
1102 2 0.4375 0.3125 0.5
1106 2 0.5625 0.3125 0.5
1108 4 0.5 0.3125 0.5625
1135 3 0.4375 0.375 0.5625
1137 1 0.5 0.375 0.5
1139 3 0.5625 0.375 0.5625
856 4 0.625 0.3125 0.4375
887 3 0.6875 0.375 0.4375
1110 2 0.6875 0.3125 0.5
1112 4 0.625 0.3125 0.5625
1141 1 0.625 0.375 0.5
1143 3 0.6875 0.375 0.5625
860 4 0.75 0.3125 0.4375
891 3 0.8125 0.375 0.4375
1114 2 0.8125 0.3125 0.5
1116 4 0.75 0.3125 0.5625
1145 1 0.75 0.375 0.5
1147 3 0.8125 0.375 0.5625
864 4 0.875 0.3125 0.4375
895 3 0.9375 0.375 0.4375
1118 2 0.9375 0.3125 0.5
1120 4 0.875 0.3125 0.5625
1149 1 0.875 0.375 0.5
1151 3 0.9375 0.375 0.5625
868 4 0 0.4375 0.4375
872 4 0.125 0.4375 0.4375
899 3 0.0625 0.5 0.4375
900 4 0 0.5625 0.4375
904 4 0.125 0.5625 0.4375
1122 2 0.0625 0.4375 0.5
1124 4 0 0.4375 0.5625
1128 4 0.125 0.4375 0.5625
1153 1 0 0.5 0.5
1154 2 0.0625 0.5625 0.5
1155 3 0.0625 0.5 0.5625
1156 4 0 0.5625 0.5625
1157 1 0.125 0.5 0.5
1160 4 0.125 0.5625 0.5625
876 4 0.25 0.4375 0.4375
903 3 0.1875 0.5 0.4375
908 4 0.25 0.5625 0.4375
1126 2 0.1875 0.4375 0.5
1132 4 0.25 0.4375 0.5625
1158 2 0.1875 0.5625 0.5
1159 3 0.1875 0.5 0.5625
1161 1 0.25 0.5 0.5
1164 4 0.25 0.5625 0.5625
880 4 0.375 0.4375 0.4375
907 3 0.3125 0.5 0.4375
912 4 0.375 0.5625 0.4375
1130 2 0.3125 0.4375 0.5
1136 4 0.375 0.4375 0.5625
1162 2 0.3125 0.5625 0.5
1163 3 0.3125 0.5 0.5625
1165 1 0.375 0.5 0.5
1168 4 0.375 0.5625 0.5625
884 4 0.5 0.4375 0.4375
911 3 0.4375 0.5 0.4375
915 3 0.5625 0.5 0.4375
916 4 0.5 0.5625 0.4375
1134 2 0.4375 0.4375 0.5
1138 2 0.5625 0.4375 0.5
1140 4 0.5 0.4375 0.5625
1166 2 0.4375 0.5625 0.5
1167 3 0.4375 0.5 0.5625
1169 1 0.5 0.5 0.5
1170 2 0.5625 0.5625 0.5
1171 3 0.5625 0.5 0.5625
1172 4 0.5 0.5625 0.5625
888 4 0.625 0.4375 0.4375
919 3 0.6875 0.5 0.4375
920 4 0.625 0.5625 0.4375
1142 2 0.6875 0.4375 0.5
1144 4 0.625 0.4375 0.5625
1173 1 0.625 0.5 0.5
1174 2 0.6875 0.5625 0.5
1175 3 0.6875 0.5 0.5625
1176 4 0.625 0.5625 0.5625
892 4 0.75 0.4375 0.4375
923 3 0.8125 0.5 0.4375
924 4 0.75 0.5625 0.4375
1146 2 0.8125 0.4375 0.5
1148 4 0.75 0.4375 0.5625
1177 1 0.75 0.5 0.5
1178 2 0.8125 0.5625 0.5
1179 3 0.8125 0.5 0.5625
1180 4 0.75 0.5625 0.5625
896 4 0.875 0.4375 0.4375
927 3 0.9375 0.5 0.4375
928 4 0.875 0.5625 0.4375
1150 2 0.9375 0.4375 0.5
1152 4 0.875 0.4375 0.5625
1181 1 0.875 0.5 0.5
1182 2 0.9375 0.5625 0.5
1183 3 0.9375 0.5 0.5625
1184 4 0.875 0.5625 0.5625
931 3 0.0625 0.625 0.4375
932 4 0 0.6875 0.4375
936 4 0.125 0.6875 0.4375
1185 1 0 0.625 0.5
1186 2 0.0625 0.6875 0.5
1187 3 0.0625 0.625 0.5625
1188 4 0 0.6875 0.5625
1189 1 0.125 0.625 0.5
1192 4 0.125 0.6875 0.5625
935 3 0.1875 0.625 0.4375
940 4 0.25 0.6875 0.4375
1190 2 0.1875 0.6875 0.5
1191 3 0.1875 0.625 0.5625
1193 1 0.25 0.625 0.5
1196 4 0.25 0.6875 0.5625
939 3 0.3125 0.625 0.4375
944 4 0.375 0.6875 0.4375
1194 2 0.3125 0.6875 0.5
1195 3 0.3125 0.625 0.5625
1197 1 0.375 0.625 0.5
1200 4 0.375 0.6875 0.5625
943 3 0.4375 0.625 0.4375
947 3 0.5625 0.625 0.4375
948 4 0.5 0.6875 0.4375
1198 2 0.4375 0.6875 0.5
1199 3 0.4375 0.625 0.5625
1201 1 0.5 0.625 0.5
1202 2 0.5625 0.6875 0.5
1203 3 0.5625 0.625 0.5625
1204 4 0.5 0.6875 0.5625
951 3 0.6875 0.625 0.4375
952 4 0.625 0.6875 0.4375
1205 1 0.625 0.625 0.5
1206 2 0.6875 0.6875 0.5
1207 3 0.6875 0.625 0.5625
1208 4 0.625 0.6875 0.5625
955 3 0.8125 0.625 0.4375
956 4 0.75 0.6875 0.4375
1209 1 0.75 0.625 0.5
1210 2 0.8125 0.6875 0.5
1211 3 0.8125 0.625 0.5625
1212 4 0.75 0.6875 0.5625
959 3 0.9375 0.625 0.4375
960 4 0.875 0.6875 0.4375
1213 1 0.875 0.625 0.5
1214 2 0.9375 0.6875 0.5
1215 3 0.9375 0.625 0.5625
1216 4 0.875 0.6875 0.5625
963 3 0.0625 0.75 0.4375
964 4 0 0.8125 0.4375
968 4 0.125 0.8125 0.4375
1217 1 0 0.75 0.5
1218 2 0.0625 0.8125 0.5
1219 3 0.0625 0.75 0.5625
1220 4 0 0.8125 0.5625
1221 1 0.125 0.75 0.5
1224 4 0.125 0.8125 0.5625
967 3 0.1875 0.75 0.4375
972 4 0.25 0.8125 0.4375
1222 2 0.1875 0.8125 0.5
1223 3 0.1875 0.75 0.5625
1225 1 0.25 0.75 0.5
1228 4 0.25 0.8125 0.5625
971 3 0.3125 0.75 0.4375
976 4 0.375 0.8125 0.4375
1226 2 0.3125 0.8125 0.5
1227 3 0.3125 0.75 0.5625
1229 1 0.375 0.75 0.5
1232 4 0.375 0.8125 0.5625
975 3 0.4375 0.75 0.4375
979 3 0.5625 0.75 0.4375
980 4 0.5 0.8125 0.4375
1230 2 0.4375 0.8125 0.5
1231 3 0.4375 0.75 0.5625
1233 1 0.5 0.75 0.5
1234 2 0.5625 0.8125 0.5
1235 3 0.5625 0.75 0.5625
1236 4 0.5 0.8125 0.5625
983 3 0.6875 0.75 0.4375
984 4 0.625 0.8125 0.4375
1237 1 0.625 0.75 0.5
1238 2 0.6875 0.8125 0.5
1239 3 0.6875 0.75 0.5625
1240 4 0.625 0.8125 0.5625
987 3 0.8125 0.75 0.4375
988 4 0.75 0.8125 0.4375
1241 1 0.75 0.75 0.5
1242 2 0.8125 0.8125 0.5
1243 3 0.8125 0.75 0.5625
1244 4 0.75 0.8125 0.5625
991 3 0.9375 0.75 0.4375
992 4 0.875 0.8125 0.4375
1245 1 0.875 0.75 0.5
1246 2 0.9375 0.8125 0.5
1247 3 0.9375 0.75 0.5625
1248 4 0.875 0.8125 0.5625
995 3 0.0625 0.875 0.4375
996 4 0 0.9375 0.4375
1000 4 0.125 0.9375 0.4375
1249 1 0 0.875 0.5
1250 2 0.0625 0.9375 0.5
1251 3 0.0625 0.875 0.5625
1252 4 0 0.9375 0.5625
1253 1 0.125 0.875 0.5
1256 4 0.125 0.9375 0.5625
999 3 0.1875 0.875 0.4375
1004 4 0.25 0.9375 0.4375
1254 2 0.1875 0.9375 0.5
1255 3 0.1875 0.875 0.5625
1257 1 0.25 0.875 0.5