ITEM: TIMESTEP
0
ITEM: NUMBER OF ATOMS
855
ITEM: BOX BOUNDS pp pp pp
0.0000000000000000e+00 2.6000000000000000e+01
0.0000000000000000e+00 2.6000000000000000e+01
0.0000000000000000e+00 2.6000000000000000e+01
ITEM: ATOMS id type xs ys zs
1 1 0 0 0
2 1 0.125 0 0
9 1 0 0.125 0
10 1 0.125 0.125 0
65 1 0 0 0.125
66 1 0.125 0 0.125
73 1 0 0.125 0.125
74 1 0.125 0.125 0.125
513 2 0.125 0.125 0.125
3 1 0.25 0 0
11 1 0.25 0.125 0
67 1 0.25 0 0.125
75 1 0.25 0.125 0.125
514 2 0.25 0.125 0.125
4 1 0.375 0 0
12 1 0.375 0.125 0
68 1 0.375 0 0.125
76 1 0.375 0.125 0.125
515 2 0.375 0.125 0.125
5 1 0.5 0 0
13 1 0.5 0.125 0
69 1 0.5 0 0.125
77 1 0.5 0.125 0.125
516 2 0.5 0.125 0.125
6 1 0.625 0 0
14 1 0.625 0.125 0
70 1 0.625 0 0.125
78 1 0.625 0.125 0.125
517 2 0.625 0.125 0.125
7 1 0.75 0 0
15 1 0.75 0.125 0
71 1 0.75 0 0.125
79 1 0.75 0.125 0.125
518 2 0.75 0.125 0.125
8 1 0.875 0 0
16 1 0.875 0.125 0
72 1 0.875 0 0.125
80 1 0.875 0.125 0.125
519 2 0.875 0.125 0.125
17 1 0 0.25 0
18 1 0.125 0.25 0
81 1 0 0.25 0.125
82 1 0.125 0.25 0.125
520 2 0.125 0.25 0.125
19 1 0.25 0.25 0
83 1 0.25 0.25 0.125
521 2 0.25 0.25 0.125
20 1 0.375 0.25 0
84 1 0.375 0.25 0.125
522 2 0.375 0.25 0.125
21 1 0.5 0.25 0
85 1 0.5 0.25 0.125
523 2 0.5 0.25 0.125
22 1 0.625 0.25 0
86 1 0.625 0.25 0.125
524 2 0.625 0.25 0.125
23 1 0.75 0.25 0
87 1 0.75 0.25 0.125
525 2 0.75 0.25 0.125
24 1 0.875 0.25 0
88 1 0.875 0.25 0.125
526 2 0.875 0.25 0.125
25 1 0 0.375 0
26 1 0.125 0.375 0
89 1 0 0.375 0.125
90 1 0.125 0.375 0.125
527 2 0.125 0.375 0.125
27 1 0.25 0.375 0
91 1 0.25 0.375 0.125
528 2 0.25 0.375 0.125
28 1 0.375 0.375 0
92 1 0.375 0.375 0.125
529 2 0.375 0.375 0.125
29 1 0.5 0.375 0
93 1 0.5 0.375 0.125
530 2 0.5 0.375 0.125
30 1 0.625 0.375 0
94 1 0.625 0.375 0.125
531 2 0.625 0.375 0.125
31 1 0.75 0.375 0
95 1 0.75 0.375 0.125
532 2 0.75 0.375 0.125
32 1 0.875 0.375 0
96 1 0.875 0.375 0.125
533 2 0.875 0.375 0.125
33 1 0 0.5 0
34 1 0.125 0.5 0
97 1 0 0.5 0.125
98 1 0.125 0.5 0.125
534 2 0.125 0.5 0.125
35 1 0.25 0.5 0
99 1 0.25 0.5 0.125
535 2 0.25 0.5 0.125
36 1 0.375 0.5 0
100 1 0.375 0.5 0.125
536 2 0.375 0.5 0.125
37 1 0.5 0.5 0
101 1 0.5 0.5 0.125
537 2 0.5 0.5 0.125
38 1 0.625 0.5 0
102 1 0.625 0.5 0.125
538 2 0.625 0.5 0.125
39 1 0.75 0.5 0
103 1 0.75 0.5 0.125
539 2 0.75 0.5 0.125
40 1 0.875 0.5 0
104 1 0.875 0.5 0.125
540 2 0.875 0.5 0.125
41 1 0 0.625 0
42 1 0.125 0.625 0
105 1 0 0.625 0.125
106 1 0.125 0.625 0.125
541 2 0.125 0.625 0.125
43 1 0.25 0.625 0
107 1 0.25 0.625 0.125
542 2 0.25 0.625 0.125
44 1 0.375 0.625 0
108 1 0.375 0.625 0.125
543 2 0.375 0.625 0.125
45 1 0.5 0.625 0
109 1 0.5 0.625 0.125
544 2 0.5 0.625 0.125
46 1 0.625 0.625 0
110 1 0.625 0.625 0.125
545 2 0.625 0.625 0.125
47 1 0.75 0.625 0
111 1 0.75 0.625 0.125
546 2 0.75 0.625 0.125
48 1 0.875 0.625 0
112 1 0.875 0.625 0.125
547 2 0.875 0.625 0.125
49 1 0 0.75 0
50 1 0.125 0.75 0
113 1 0 0.75 0.125
114 1 0.125 0.75 0.125
548 2 0.125 0.75 0.125
51 1 0.25 0.75 0
115 1 0.25 0.75 0.125
549 2 0.25 0.75 0.125
52 1 0.375 0.75 0
116 1 0.375 0.75 0.125
550 2 0.375 0.75 0.125
53 1 0.5 0.75 0
117 1 0.5 0.75 0.125
551 2 0.5 0.75 0.125
54 1 0.625 0.75 0
118 1 0.625 0.75 0.125
552 2 0.625 0.75 0.125
55 1 0.75 0.75 0
119 1 0.75 0.75 0.125
553 2 0.75 0.75 0.125
56 1 0.875 0.75 0
120 1 0.875 0.75 0.125
554 2 0.875 0.75 0.125
57 1 0 0.875 0
58 1 0.125 0.875 0
121 1 0 0.875 0.125
122 1 0.125 0.875 0.125
555 2 0.125 0.875 0.125
59 1 0.25 0.875 0
123 1 0.25 0.875 0.125
556 2 0.25 0.875 0.125
60 1 0.375 0.875 0
124 1 0.375 0.875 0.125
557 2 0.375 0.875 0.125
61 1 0.5 0.875 0
125 1 0.5 0.875 0.125
558 2 0.5 0.875 0.125
62 1 0.625 0.875 0
126 1 0.625 0.875 0.125
559 2 0.625 0.875 0.125
63 1 0.75 0.875 0
127 1 0.75 0.875 0.125
560 2 0.75 0.875 0.125
64 1 0.875 0.875 0
128 1 0.875 0.875 0.125
561 2 0.875 0.875 0.125
129 1 0 0 0.25
130 1 0.125 0 0.25
137 1 0 0.125 0.25
138 1 0.125 0.125 0.25
562 2 0.125 0.125 0.25
131 1 0.25 0 0.25
139 1 0.25 0.125 0.25
563 2 0.25 0.125 0.25
132 1 0.375 0 0.25
140 1 0.375 0.125 0.25
564 2 0.375 0.125 0.25
133 1 0.5 0 0.25
141 1 0.5 0.125 0.25
565 2 0.5 0.125 0.25
134 1 0.625 0 0.25
142 1 0.625 0.125 0.25
566 2 0.625 0.125 0.25
135 1 0.75 0 0.25
143 1 0.75 0.125 0.25
567 2 0.75 0.125 0.25
136 1 0.875 0 0.25
144 1 0.875 0.125 0.25
568 2 0.875 0.125 0.25
145 1 0 0.25 0.25
146 1 0.125 0.25 0.25
569 2 0.125 0.25 0.25
147 1 0.25 0.25 0.25
570 2 0.25 0.25 0.25
148 1 0.375 0.25 0.25
571 2 0.375 0.25 0.25
149 1 0.5 0.25 0.25
572 2 0.5 0.25 0.25
150 1 0.625 0.25 0.25
573 2 0.625 0.25 0.25
151 1 0.75 0.25 0.25
574 2 0.75 0.25 0.25
152 1 0.875 0.25 0.25
575 2 0.875 0.25 0.25
153 1 0 0.375 0.25
154 1 0.125 0.375 0.25
576 2 0.125 0.375 0.25
155 1 0.25 0.375 0.25
577 2 0.25 0.375 0.25
156 1 0.375 0.375 0.25
578 2 0.375 0.375 0.25
157 1 0.5 0.375 0.25
579 2 0.5 0.375 0.25
158 1 0.625 0.375 0.25
580 2 0.625 0.375 0.25
159 1 0.75 0.375 0.25
581 2 0.75 0.375 0.25
160 1 0.875 0.375 0.25
582 2 0.875 0.375 0.25
161 1 0 0.5 0.25
162 1 0.125 0.5 0.25
583 2 0.125 0.5 0.25
163 1 0.25 0.5 0.25
584 2 0.25 0.5 0.25
164 1 0.375 0.5 0.25
585 2 0.375 0.5 0.25
165 1 0.5 0.5 0.25
586 2 0.5 0.5 0.25
166 1 0.625 0.5 0.25
587 2 0.625 0.5 0.25
167 1 0.75 0.5 0.25
588 2 0.75 0.5 0.25
168 1 0.875 0.5 0.25
589 2 0.875 0.5 0.25
169 1 0 0.625 0.25
170 1 0.125 0.625 0.25
590 2 0.125 0.625 0.25
171 1 0.25 0.625 0.25
591 2 0.25 0.625 0.25
172 1 0.375 0.625 0.25
592 2 0.375 0.625 0.25
173 1 0.5 0.625 0.25
593 2 0.5 0.625 0.25
174 1 0.625 0.625 0.25
594 2 0.625 0.625 0.25
175 1 0.75 0.625 0.25
595 2 0.75 0.625 0.25
176 1 0.875 0.625 0.25
596 2 0.875 0.625 0.25
177 1 0 0.75 0.25
178 1 0.125 0.75 0.25
597 2 0.125 0.75 0.25
179 1 0.25 0.75 0.25
598 2 0.25 0.75 0.25
180 1 0.375 0.75 0.25
599 2 0.375 0.75 0.25
181 1 0.5 0.75 0.25
600 2 0.5 0.75 0.25
182 1 0.625 0.75 0.25
601 2 0.625 0.75 0.25
183 1 0.75 0.75 0.25
602 2 0.75 0.75 0.25
184 1 0.875 0.75 0.25
603 2 0.875 0.75 0.25
185 1 0 0.875 0.25
186 1 0.125 0.875 0.25
604 2 0.125 0.875 0.25
187 1 0.25 0.875 0.25
605 2 0.25 0.875 0.25
188 1 0.375 0.875 0.25
606 2 0.375 0.875 0.25
189 1 0.5 0.875 0.25
607 2 0.5 0.875 0.25
190 1 0.625 0.875 0.25
608 2 0.625 0.875 0.25
191 1 0.75 0.875 0.25
609 2 0.75 0.875 0.25
192 1 0.875 0.875 0.25
610 2 0.875 0.875 0.25
193 1 0 0 0.375
194 1 0.125 0 0.375
201 1 0 0.125 0.375
202 1 0.125 0.125 0.375
611 2 0.125 0.125 0.375
195 1 0.25 0 0.375
203 1 0.25 0.125 0.375
612 2 0.25 0.125 0.375
196 1 0.375 0 0.375
204 1 0.375 0.125 0.375
613 2 0.375 0.125 0.375
197 1 0.5 0 0.375
205 1 0.5 0.125 0.375
614 2 0.5 0.125 0.375
198 1 0.625 0 0.375
206 1 0.625 0.125 0.375
615 2 0.625 0.125 0.375
199 1 0.75 0 0.375
207 1 0.75 0.125 0.375
616 2 0.75 0.125 0.375
200 1 0.875 0 0.375
208 1 0.875 0.125 0.375
617 2 0.875 0.125 0.375
209 1 0 0.25 0.375
210 1 0.125 0.25 0.375
618 2 0.125 0.25 0.375
211 1 0.25 0.25 0.375
619 2 0.25 0.25 0.375
212 1 0.375 0.25 0.375
620 2 0.375 0.25 0.375
213 1 0.5 0.25 0.375
621 2 0.5 0.25 0.375
214 1 0.625 0.25 0.375
622 2 0.625 0.25 0.375
215 1 0.75 0.25 0.375
623 2 0.75 0.25 0.375
216 1 0.875 0.25 0.375
624 2 0.875 0.25 0.375
217 1 0 0.375 0.375
218 1 0.125 0.375 0.375
625 2 0.125 0.375 0.375
219 1 0.25 0.375 0.375
626 2 0.25 0.375 0.375
220 1 0.375 0.375 0.375
627 2 0.375 0.375 0.375
221 1 0.5 0.375 0.375
628 2 0.5 0.375 0.375
222 1 0.625 0.375 0.375
629 2 0.625 0.375 0.375
223 1 0.75 0.375 0.375
630 2 0.75 0.375 0.375
224 1 0.875 0.375 0.375
631 2 0.875 0.375 0.375
225 1 0 0.5 0.375
226 1 0.125 0.5 0.375
632 2 0.125 0.5 0.375
227 1 0.25 0.5 0.375
633 2 0.25 0.5 0.375
228 1 0.375 0.5 0.375
634 2 0.375 0.5 0.375
229 1 0.5 0.5 0.375
635 2 0.5 0.5 0.375
230 1 0.625 0.5 0.375
636 2 0.625 0.5 0.375
231 1 0.75 0.5 0.375
637 2 0.75 0.5 0.375
232 1 0.875 0.5 0.375
638 2 0.875 0.5 0.375
233 1 0 0.625 0.375
234 1 0.125 0.625 0.375
639 2 0.125 0.625 0.375
235 1 0.25 0.625 0.375
640 2 0.25 0.625 0.375
236 1 0.375 0.625 0.375
641 2 0.375 0.625 0.375
237 1 0.5 0.625 0.375
642 2 0.5 0.625 0.375
238 1 0.625 0.625 0.375
643 2 0.625 0.625 0.375
239 1 0.75 0.625 0.375
644 2 0.75 0.625 0.375
240 1 0.875 0.625 0.375
645 2 0.875 0.625 0.375
241 1 0 0.75 0.375
242 1 0.125 0.75 0.375
646 2 0.125 0.75 0.375
243 1 0.25 0.75 0.375
647 2 0.25 0.75 0.375
244 1 0.375 0.75 0.375
648 2 0.375 0.75 0.375
245 1 0.5 0.75 0.375
649 2 0.5 0.75 0.375
246 1 0.625 0.75 0.375
650 2 0.625 0.75 0.375
247 1 0.75 0.75 0.375
651 2 0.75 0.75 0.375
248 1 0.875 0.75 0.375
652 2 0.875 0.75 0.375
249 1 0 0.875 0.375
250 1 0.125 0.875 0.375
653 2 0.125 0.875 0.375
251 1 0.25 0.875 0.375
654 2 0.25 0.875 0.375
252 1 0.375 0.875 0.375
655 2 0.375 0.875 0.375
253 1 0.5 0.875 0.375
656 2 0.5 0.875 0.375
254 1 0.625 0.875 0.375
657 2 0.625 0.875 0.375
255 1 0.75 0.875 0.375
658 2 0.75 0.875 0.375
256 1 0.875 0.875 0.375
659 2 0.875 0.875 0.375
257 1 0 0 0.5
258 1 0.125 0 0.5
265 1 0 0.125 0.5
266 1 0.125 0.125 0.5
660 2 0.125 0.125 0.5
259 1 0.25 0 0.5
267 1 0.25 0.125 0.5
661 2 0.25 0.125 0.5
260 1 0.375 0 0.5
268 1 0.375 0.125 0.5
662 2 0.375 0.125 0.5
261 1 0.5 0 0.5
269 1 0.5 0.125 0.5
663 2 0.5 0.125 0.5
262 1 0.625 0 0.5
270 1 0.625 0.125 0.5
664 2 0.625 0.125 0.5
263 1 0.75 0 0.5
271 1 0.75 0.125 0.5
665 2 0.75 0.125 0.5
264 1 0.875 0 0.5
272 1 0.875 0.125 0.5
666 2 0.875 0.125 0.5
273 1 0 0.25 0.5
274 1 0.125 0.25 0.5
667 2 0.125 0.25 0.5
275 1 0.25 0.25 0.5
668 2 0.25 0.25 0.5
276 1 0.375 0.25 0.5
669 2 0.375 0.25 0.5
277 1 0.5 0.25 0.5
670 2 0.5 0.25 0.5
278 1 0.625 0.25 0.5
671 2 0.625 0.25 0.5
279 1 0.75 0.25 0.5
672 2 0.75 0.25 0.5
280 1 0.875 0.25 0.5
673 2 0.875 0.25 0.5
281 1 0 0.375 0.5
282 1 0.125 0.375 0.5
674 2 0.125 0.375 0.5
283 1 0.25 0.375 0.5
675 2 0.25 0.375 0.5
284 1 0.375 0.375 0.5
676 2 0.375 0.375 0.5
285 1 0.5 0.375 0.5
677 2 0.5 0.375 0.5
286 1 0.625 0.375 0.5
678 2 0.625 0.375 0.5
287 1 0.75 0.375 0.5
679 2 0.75 0.375 0.5
288 1 0.875 0.375 0.5
680 2 0.875 0.375 0.5
289 1 0 0.5 0.5
290 1 0.125 0.5 0.5
681 2 0.125 0.5 0.5
291 1 0.25 0.5 0.5
682 2 0.25 0.5 0.5
292 1 0.375 0.5 0.5
683 2 0.375 0.5 0.5
293 1 0.5 0.5 0.5
684 2 0.5 0.5 0.5
294 1 0.625 0.5 0.5
685 2 0.625 0.5 0.5
295 1 0.75 0.5 0.5
686 2 0.75 0.5 0.5
296 1 0.875 0.5 0.5
687 2 0.875 0.5 0.5
297 1 0 0.625 0.5
298 1 0.125 0.625 0.5
688 2 0.125 0.625 0.5
299 1 0.25 0.625 0.5
689 2 0.25 0.625 0.5
300 1 0.375 0.625 0.5
690 2 0.375 0.625 0.5
301 1 0.5 0.625 0.5
691 2 0.5 0.625 0.5
302 1 0.625 0.625 0.5
692 2 0.625 0.625 0.5
303 1 0.75 0.625 0.5
693 2 0.75 0.625 0.5
304 1 0.875 0.625 0.5
694 2 0.875 0.625 0.5
305 1 0 0.75 0.5
306 1 0.125 0.75 0.5
695 2 0.125 0.75 0.5
307 1 0.25 0.75 0.5
696 2 0.25 0.75 0.5
308 1 0.375 0.75 0.5
697 2 0.375 0.75 0.5
309 1 0.5 0.75 0.5
698 2 0.5 0.75 0.5
310 1 0.625 0.75 0.5
699 2 0.625 0.75 0.5
311 1 0.75 0.75 0.5
700 2 0.75 0.75 0.5
312 1 0.875 0.75 0.5
701 2 0.875 0.75 0.5
313 1 0 0.875 0.5
314 1 0.125 0.875 0.5
702 2 0.125 0.875 0.5
315 1 0.25 0.875 0.5
703 2 0.25 0.875 0.5
316 1 0.375 0.875 0.5
704 2 0.375 0.875 0.5
317 1 0.5 0.875 0.5
705 2 0.5 0.875 0.5
318 1 0.625 0.875 0.5
706 2 0.625 0.875 0.5
319 1 0.75 0.875 0.5
707 2 0.75 0.875 0.5
320 1 0.875 0.875 0.5
708 2 0.875 0.875 0.5
321 1 0 0 0.625
322 1 0.125 0 0.625
329 1 0 0.125 0.625
330 1 0.125 0.125 0.625
709 2 0.125 0.125 0.625
323 1 0.25 0 0.625
331 1 0.25 0.125 0.625
710 2 0.25 0.125 0.625
324 1 0.375 0 0.625
332 1 0.375 0.125 0.625
711 2 0.375 0.125 0.625
325 1 0.5 0 0.625
333 1 0.5 0.125 0.625
712 2 0.5 0.125 0.625
326 1 0.625 0 0.625
334 1 0.625 0.125 0.625
713 2 0.625 0.125 0.625
327 1 0.75 0 0.625
335 1 0.75 0.125 0.625
714 2 0.75 0.125 0.625
328 1 0.875 0 0.625
336 1 0.875 0.125 0.625
715 2 0.875 0.125 0.625
337 1 0 0.25 0.625
338 1 0.125 0.25 0.625
716 2 0.125 0.25 0.625
339 1 0.25 0.25 0.625
717 2 0.25 0.25 0.625
340 1 0.375 0.25 0.625
718 2 0.375 0.25 0.625
341 1 0.5 0.25 0.625
719 2 0.5 0.25 0.625
342 1 0.625 0.25 0.625
720 2 0.625 0.25 0.625
343 1 0.75 0.25 0.625
721 2 0.75 0.25 0.625
344 1 0.875 0.25 0.625
722 2 0.875 0.25 0.625
345 1 0 0.375 0.625
346 1 0.125 0.375 0.625
723 2 0.125 0.375 0.625
347 1 0.25 0.375 0.625
724 2 0.25 0.375 0.625
348 1 0.375 0.375 0.625
725 2 0.375 0.375 0.625
349 1 0.5 0.375 0.625
726 2 0.5 0.375 0.625
350 1 0.625 0.375 0.625
727 2 0.625 0.375 0.625
351 1 0.75 0.375 0.625
728 2 0.75 0.375 0.625
352 1 0.875 0.375 0.625
729 2 0.875 0.375 0.625
353 1 0 0.5 0.625
354 1 0.125 0.5 0.625
730 2 0.125 0.5 0.625
355 1 0.25 0.5 0.625
731 2 0.25 0.5 0.625
356 1 0.375 0.5 0.625
732 2 0.375 0.5 0.625
357 1 0.5 0.5 0.625
733 2 0.5 0.5 0.625
358 1 0.625 0.5 0.625
734 2 0.625 0.5 0.625
359 1 0.75 0.5 0.625
735 2 0.75 0.5 0.625
360 1 0.875 0.5 0.625
736 2 0.875 0.5 0.625
361 1 0 0.625 0.625
362 1 0.125 0.625 0.625
737 2 0.125 0.625 0.625
363 1 0.25 0.625 0.625
738 2 0.25 0.625 0.625
364 1 0.375 0.625 0.625
739 2 0.375 0.625 0.625
365 1 0.5 0.625 0.625
740 2 0.5 0.625 0.625
366 1 0.625 0.625 0.625
741 2 0.625 0.625 0.625
367 1 0.75 0.625 0.625
742 2 0.75 0.625 0.625
368 1 0.875 0.625 0.625
743 2 0.875 0.625 0.625
369 1 0 0.75 0.625
370 1 0.125 0.75 0.625
744 2 0.125 0.75 0.625
371 1 0.25 0.75 0.625
745 2 0.25 0.75 0.625
372 1 0.375 0.75 0.625
746 2 0.375 0.75 0.625
373 1 0.5 0.75 0.625
747 2 0.5 0.75 0.625
374 1 0.625 0.75 0.625
748 2 0.625 0.75 0.625
375 1 0.75 0.75 0.625
749 2 0.75 0.75 0.625
376 1 0.875 0.75 0.625
750 2 0.875 0.75 0.625
377 1 0 0.875 0.625
378 1 0.125 0.875 0.625
751 2 0.125 0.875 0.625
379 1 0.25 0.875 0.625
752 2 0.25 0.875 0.625
380 1 0.375 0.875 0.625
753 2 0.375 0.875 0.625
381 1 0.5 0.875 0.625
754 2 0.5 0.875 0.625
382 1 0.625 0.875 0.625
755 2 0.625 0.875 0.625
383 1 0.75 0.875 0.625
756 2 0.75 0.875 0.625
384 1 0.875 0.875 0.625
757 2 0.875 0.875 0.625
385 1 0 0 0.75
386 1 0.125 0 0.75
393 1 0 0.125 0.75
394 1 0.125 0.125 0.75
758 2 0.125 0.125 0.75
387 1 0.25 0 0.75
395 1 0.25 0.125 0.75
759 2 0.25 0.125 0.75
388 1 0.375 0 0.75
396 1 0.375 0.125 0.75
760 2 0.375 0.125 0.75
389 1 0.5 0 0.75
397 1 0.5 0.125 0.75
761 2 0.5 0.125 0.75
390 1 0.625 0 0.75
398 1 0.625 0.125 0.75
762 2 0.625 0.125 0.75
391 1 0.75 0 0.75
399 1 0.75 0.125 0.75
763 2 0.75 0.125 0.75
392 1 0.875 0 0.75
400 1 0.875 0.125 0.75
764 2 0.875 0.125 0.75
401 1 0 0.25 0.75
402 1 0.125 0.25 0.75
765 2 0.125 0.25 0.75
403 1 0.25 0.25 0.75
766 2 0.25 0.25 0.75
404 1 0.375 0.25 0.75
767 2 0.375 0.25 0.75
405 1 0.5 0.25 0.75
768 2 0.5 0.25 0.75
406 1 0.625 0.25 0.75
769 2 0.625 0.25 0.75
407 1 0.75 0.25 0.75
770 2 0.75 0.25 0.75
408 1 0.875 0.25 0.75
771 2 0.875 0.25 0.75
409 1 0 0.375 0.75
410 1 0.125 0.375 0.75
772 2 0.125 0.375 0.75
411 1 0.25 0.375 0.75
773 2 0.25 0.375 0.75
412 1 0.375 0.375 0.75
774 2 0.375 0.375 0.75
413 1 0.5 0.375 0.75
775 2 0.5 0.375 0.75
414 1 0.625 0.375 0.75
776 2 0.625 0.375 0.75
415 1 0.75 0.375 0.75
777 2 0.75 0.375 0.75
416 1 0.875 0.375 0.75
778 2 0.875 0.375 0.75
417 1 0 0.5 0.75
418 1 0.125 0.5 0.75
779 2 0.125 0.5 0.75
419 1 0.25 0.5 0.75
780 2 0.25 0.5 0.75
420 1 0.375 0.5 0.75
781 2 0.375 0.5 0.75
421 1 0.5 0.5 0.75
782 2 0.5 0.5 0.75
422 1 0.625 0.5 0.75
783 2 0.625 0.5 0.75
423 1 0.75 0.5 0.75
784 2 0.75 0.5 0.75
424 1 0.875 0.5 0.75
785 2 0.875 0.5 0.75
425 1 0 0.625 0.75
426 1 0.125 0.625 0.75
786 2 0.125 0.625 0.75
427 1 0.25 0.625 0.75
787 2 0.25 0.625 0.75
428 1 0.375 0.625 0.75
788 2 0.375 0.625 0.75
429 1 0.5 0.625 0.75
789 2 0.5 0.625 0.75
430 1 0.625 0.625 0.75
790 2 0.625 0.625 0.75
431 1 0.75 0.625 0.75
791 2 0.75 0.625 0.75
432 1 0.875 0.625 0.75
792 2 0.875 0.625 0.75
433 1 0 0.75 0.75
434 1 0.125 0.75 0.75
793 2 0.125 0.75 0.75
435 1 0.25 0.75 0.75
794 2 0.25 0.75 0.75
436 1 0.375 0.75 0.75
795 2 0.375 0.75 0.75
437 1 0.5 0.75 0.75
796 2 0.5 0.75 0.75
438 1 0.625 0.75 0.75
797 2 0.625 0.75 0.75
439 1 0.75 0.75 0.75
798 2 0.75 0.75 0.75
440 1 0.875 0.75 0.75
799 2 0.875 0.75 0.75
441 1 0 0.875 0.75
442 1 0.125 0.875 0.75
800 2 0.125 0.875 0.75
443 1 0.25 0.875 0.75
801 2 0.25 0.875 0.75
444 1 0.375 0.875 0.75
802 2 0.375 0.875 0.75
445 1 0.5 0.875 0.75
803 2 0.5 0.875 0.75
446 1 0.625 0.875 0.75
804 2 0.625 0.875 0.75
447 1 0.75 0.875 0.75
805 2 0.75 0.875 0.75
448 1 0.875 0.875 0.75
806 2 0.875 0.875 0.75
449 1 0 0 0.875
450 1 0.125 0 0.875
457 1 0 0.125 0.875
458 1 0.125 0.125 0.875
807 2 0.125 0.125 0.875
451 1 0.25 0 0.875
459 1 0.25 0.125 0.875
808 2 0.25 0.125 0.875
452 1 0.375 0 0.875
460 1 0.375 0.125 0.875
809 2 0.375 0.125 0.875
453 1 0.5 0 0.875
461 1 0.5 0.125 0.875
810 2 0.5 0.125 0.875
454 1 0.625 0 0.875
462 1 0.625 0.125 0.875
811 2 0.625 0.125 0.875
455 1 0.75 0 0.875
463 1 0.75 0.125 0.875
812 2 0.75 0.125 0.875
456 1 0.875 0 0.875
464 1 0.875 0.125 0.875
813 2 0.875 0.125 0.875
465 1 0 0.25 0.875
466 1 0.125 0.25 0.875
814 2 0.125 0.25 0.875
467 1 0.25 0.25 0.875
815 2 0.25 0.25 0.875
468 1 0.375 0.25 0.875
816 2 0.375 0.25 0.875
469 1 0.5 0.25 0.875
817 2 0.5 0.25 0.875
470 1 0.625 0.25 0.875
818 2 0.625 0.25 0.875
471 1 0.75 0.25 0.875
819 2 0.75 0.25 0.875
472 1 0.875 0.25 0.875
820 2 0.875 0.25 0.875
473 1 0 0.375 0.875
474 1 0.125 0.375 0.875
821 2 0.125 0.375 0.875
475 1 0.25 0.375 0.875
822 2 0.25 0.375 0.875
476 1 0.375 0.375 0.875
823 2 0.375 0.375 0.875
477 1 0.5 0.375 0.875
824 2 0.5 0.375 0.875
478 1 0.625 0.375 0.875
825 2 0.625 0.375 0.875
479 1 0.75 0.375 0.875
826 2 0.75 0.375 0.875
480 1 0.875 0.375 0.875
827 2 0.875 0.375 0.875
481 1 0 0.5 0.875
482 1 0.125 0.5 0.875
828 2 0.125 0.5 0.875
483 1 0.25 0.5 0.875
829 2 0.25 0.5 0.875
484 1 0.375 0.5 0.875
830 2 0.375 0.5 0.875
485 1 0.5 0.5 0.875
831 2 0.5 0.5 0.875
486 1 0.625 0.5 0.875
832 2 0.625 0.5 0.875
487 1 0.75 0.5 0.875
833 2 0.75 0.5 0.875
488 1 0.875 0.5 0.875
834 2 0.875 0.5 0.875
489 1 0 0.625 0.875
490 1 0.125 0.625 0.875
835 2 0.125 0.625 0.875
491 1 0.25 0.625 0.875
836 2 0.25 0.625 0.875
492 1 0.375 0.625 0.875
837 2 0.375 0.625 0.875
493 1 0.5 0.625 0.875
838 2 0.5 0.625 0.875
494 1 0.625 0.625 0.875
839 2 0.625 0.625 0.875
495 1 0.75 0.625 0.875
840 2 0.75 0.625 0.875
496 1 0.875 0.625 0.875
841 2 0.875 0.625 0.875
497 1 0 0.75 0.875
498 1 0.125 0.75 0.875
842 2 0.125 0.75 0.875
499 1 0.25 0.75 0.875
843 2 0.25 0.75 0.875
500 1 0.375 0.75 0.875
844 2 0.375 0.75 0.875
501 1 0.5 0.75 0.875
845 2 0.5 0.75 0.875
502 1 0.625 0.75 0.875
846 2 0.625 0.75 0.875
503 1 0.75 0.75 0.875
847 2 0.75 0.75 0.875
504 1 0.875 0.75 0.875
848 2 0.875 0.75 0.875
505 1 0 0.875 0.875
506 1 0.125 0.875 0.875
849 2 0.125 0.875 0.875
507 1 0.25 0.875 0.875
850 2 0.25 0.875 0.875
508 1 0.375 0.875 0.875
851 2 0.375 0.875 0.875
509 1 0.5 0.875 0.875
852 2 0.5 0.875 0.875
510 1 0.625 0.875 0.875
853 2 0.625 0.875 0.875
511 1 0.75 0.875 0.875
854 2 0.75 0.875 0.875
512 1 0.875 0.875 0.875
855 2 0.875 0.875 0.875
